
Host: ed7

Timers On : Tue Oct 10 18:12:07 2017

Wall Time:        0.23 seconds


-----------------------------------------------------------

***********************************************************
