
Host: ed4

Timers On : Tue Oct 10 18:12:07 2017
Timers Off: Tue Oct 10 18:12:08 2017

Wall Time:        0.23 seconds


-----------------------------------------------------------

***********************************************************
